#NP 10*10*20
#second line will be skipped

12096     atoms
8064     bonds
4032    angles
0  dihedrals
0  impropers

6 atom types
1 bond types
1 angle types
0  dihedral types
0  improper types

0.29 49.21 xlo xhi
0.29 48.69 ylo yhi
-19.96 0.00 zlo zhi

Masses

1 1.0
2 1.0
3 1.0
4 1.0
5 1.0
6 1.0

Atoms

1 0 3 0.0 34.618 18.260 -14.285 
2 0 2 0.0 34.365 18.396 -15.161 
3 0 2 0.0 34.278 18.435 -16.100 
4 1 1 0.0 30.355 0.835 -18.738 
5 1 2 0.0 30.466 0.860 -17.741 
6 1 2 0.0 30.254 0.720 -16.788 
7 2 1 0.0 30.330 36.925 -13.705 
8 2 2 0.0 30.468 36.792 -14.669 
9 2 2 0.0 30.758 36.872 -15.580 
10 3 1 0.0 31.932 46.056 -17.732 
11 3 2 0.0 31.981 46.388 -16.782 
12 3 2 0.0 32.107 46.440 -15.876 
13 4 3 0.0 20.520 33.781 -13.880 
14 4 2 0.0 20.605 33.699 -14.842 
15 4 2 0.0 20.547 33.703 -15.736 
16 5 3 0.0 41.001 28.379 -17.747 
17 5 2 0.0 41.498 28.133 -17.003 
18 5 2 0.0 41.781 27.507 -16.343 
19 6 1 0.0 19.487 32.380 -17.823 
20 6 2 0.0 19.157 32.252 -16.871 
21 6 2 0.0 18.884 32.092 -15.989 
22 7 1 0.0 43.637 17.079 -19.639 
23 7 2 0.0 43.494 17.368 -18.689 
24 7 2 0.0 43.791 17.458 -17.751 
25 8 3 0.0 9.219 0.986 -14.257 
26 8 2 0.0 9.333 0.798 -15.178 
27 8 2 0.0 9.016 0.750 -16.074 
28 9 1 0.0 19.544 36.400 -14.411 
29 9 2 0.0 20.054 36.215 -15.172 
30 9 2 0.0 19.966 36.246 -16.142 
31 10 1 0.0 21.389 30.421 -13.632 
32 10 2 0.0 21.581 30.300 -14.562 
33 10 2 0.0 21.585 30.293 -15.493 
34 11 3 0.0 35.819 22.976 -18.626 
35 11 2 0.0 36.059 22.722 -17.700 
36 11 2 0.0 35.986 22.428 -16.825 
37 12 3 0.0 12.481 39.081 -14.268 
38 12 2 0.0 12.673 39.381 -15.167 
39 12 2 0.0 12.629 39.595 -16.178 
40 13 1 0.0 48.987 5.313 -18.486 
41 13 2 0.0 49.060 5.279 -17.537 
42 13 2 0.0 49.112 5.443 -16.595 
43 14 3 0.0 29.510 43.485 -14.836 
44 14 2 0.0 29.306 43.353 -15.760 
45 14 2 0.0 29.138 43.381 -16.731 
46 15 1 0.0 38.311 44.860 -17.980 
47 15 2 0.0 37.865 44.822 -17.076 
48 15 2 0.0 37.507 44.656 -16.212 
49 16 1 0.0 33.651 6.319 -13.811 
50 16 2 0.0 33.879 6.145 -14.743 
51 16 2 0.0 33.860 6.045 -15.726 
52 17 3 0.0 5.100 14.341 -19.385 
53 17 2 0.0 4.963 14.745 -18.542 
54 17 2 0.0 4.691 15.296 -17.849 
55 18 3 0.0 19.658 13.052 -13.180 
56 18 2 0.0 19.759 12.550 -14.044 
57 18 2 0.0 19.907 12.225 -14.927 
58 19 1 0.0 48.222 15.876 -18.370 
59 19 2 0.0 48.003 15.264 -17.699 
60 19 2 0.0 47.751 14.844 -16.883 
61 20 1 0.0 16.292 48.160 -13.536 
62 20 2 0.0 16.311 48.172 -14.552 
63 20 2 0.0 16.203 48.169 -15.484 
64 21 3 0.0 43.778 10.173 -13.429 
65 21 2 0.0 43.547 10.055 -14.360 
66 21 2 0.0 43.330 9.943 -15.271 
67 22 3 0.0 14.395 20.011 -18.896 
68 22 2 0.0 14.342 19.666 -17.943 
69 22 2 0.0 14.160 19.356 -17.067 
70 23 1 0.0 44.025 16.117 -14.499 
71 23 2 0.0 43.885 16.129 -15.383 
72 23 2 0.0 43.856 15.912 -16.328 
73 24 3 0.0 34.780 1.239 -18.159 
74 24 2 0.0 34.829 1.450 -17.087 
75 24 2 0.0 35.038 1.675 -16.172 
76 25 3 0.0 45.687 34.254 -13.398 
77 25 2 0.0 45.666 34.171 -14.334 
78 25 2 0.0 45.632 34.119 -15.240 
79 26 3 0.0 0.957 3.537 -13.893 
80 26 2 0.0 1.236 3.669 -14.879 
81 26 2 0.0 1.513 3.940 -15.726 
82 27 3 0.0 49.054 47.834 -17.778 
83 27 2 0.0 48.953 47.295 -16.970 
84 27 2 0.0 49.016 47.248 -16.010 
85 28 3 0.0 12.195 47.087 -18.226 
86 28 2 0.0 12.170 46.896 -17.282 
87 28 2 0.0 12.128 46.630 -16.371 
88 29 3 0.0 25.834 6.555 -13.542 
89 29 2 0.0 25.637 6.522 -14.455 
90 29 2 0.0 25.811 6.657 -15.381 
91 30 3 0.0 32.809 9.581 -14.312 
92 30 2 0.0 32.650 9.406 -15.221 
93 30 2 0.0 32.165 9.582 -16.139 
94 31 3 0.0 0.959 33.048 -18.211 
95 31 2 0.0 1.095 33.438 -17.323 
96 31 2 0.0 1.375 33.819 -16.428 
97 32 3 0.0 34.026 7.331 -17.884 
98 32 2 0.0 33.590 7.129 -17.024 
99 32 2 0.0 33.234 6.710 -16.226 
100 33 3 0.0 20.696 45.467 -14.139 
101 33 2 0.0 20.569 45.175 -15.082 
102 33 2 0.0 20.177 45.095 -15.968 
103 34 1 0.0 29.403 35.202 -14.116 
104 34 2 0.0 29.924 34.878 -14.885 
105 34 2 0.0 30.534 34.390 -15.502 
106 35 1 0.0 40.578 13.804 -18.766 
107 35 2 0.0 40.705 13.704 -17.740 
108 35 2 0.0 40.847 13.832 -16.818 
109 36 1 0.0 12.481 6.178 -18.696 
110 36 2 0.0 12.515 6.245 -17.761 
111 36 2 0.0 12.849 6.410 -16.864 
112 37 1 0.0 46.233 30.303 -13.050 
113 37 2 0.0 46.428 29.968 -13.863 
114 37 2 0.0 46.585 29.572 -14.721 
115 38 1 0.0 31.404 8.955 -18.195 
116 38 2 0.0 31.436 9.084 -17.261 
117 38 2 0.0 31.332 9.146 -16.323 
118 39 1 0.0 49.138 33.476 -13.049 
119 39 2 0.0 49.031 34.056 -13.922 
120 39 2 0.0 48.438 34.502 -14.587 
121 40 1 0.0 18.660 6.364 -13.125 
122 40 2 0.0 18.707 6.435 -14.090 
123 40 2 0.0 18.820 6.443 -15.058 
124 41 3 0.0 24.321 40.337 -17.638 
125 41 2 0.0 24.672 40.363 -16.767 
126 41 2 0.0 24.885 40.193 -15.836 
127 42 3 0.0 1.272 44.179 -14.152 
128 42 2 0.0 1.022 44.195 -15.049 
129 42 2 0.0 0.504 43.889 -15.762 
130 43 1 0.0 46.563 5.325 -18.478 
131 43 2 0.0 46.708 5.485 -17.490 
132 43 2 0.0 46.995 5.574 -16.572 
133 44 3 0.0 16.610 6.930 -18.015 
134 44 2 0.0 16.731 7.212 -17.129 
135 44 2 0.0 16.758 7.157 -16.095 
136 45 1 0.0 7.173 34.952 -19.198 
137 45 2 0.0 7.472 35.085 -18.344 
138 45 2 0.0 7.695 35.130 -17.353 
139 46 1 0.0 17.069 11.298 -13.706 
140 46 2 0.0 17.423 10.978 -14.524 
141 46 2 0.0 17.652 10.886 -15.444 
142 47 3 0.0 28.769 5.662 -13.479 
143 47 2 0.0 28.914 5.886 -14.407 
144 47 2 0.0 29.225 6.037 -15.300 
145 48 1 0.0 1.646 11.527 -14.998 
146 48 2 0.0 1.865 11.527 -15.904 
147 48 2 0.0 2.327 11.700 -16.695 
148 49 3 0.0 33.714 8.488 -14.660 
149 49 2 0.0 33.493 8.943 -15.485 
150 49 2 0.0 33.257 9.405 -16.234 
151 50 1 0.0 5.498 36.248 -18.205 
152 50 2 0.0 5.383 36.875 -17.486 
153 50 2 0.0 4.844 37.038 -16.628 
154 51 1 0.0 40.557 8.846 -18.312 
155 51 2 0.0 40.508 8.838 -17.359 
156 51 2 0.0 40.471 9.032 -16.420 
157 52 3 0.0 5.370 10.687 -14.073 
158 52 2 0.0 5.407 10.584 -15.023 
159 52 2 0.0 5.312 10.616 -16.009 
160 53 1 0.0 42.702 36.013 -17.427 
161 53 2 0.0 42.393 35.998 -16.489 
162 53 2 0.0 42.257 35.748 -15.487 
163 54 3 0.0 13.345 0.436 -18.402 
164 54 2 0.0 12.981 0.711 -17.549 
165 54 2 0.0 12.608 0.924 -16.735 
166 55 3 0.0 19.818 29.803 -14.062 
167 55 2 0.0 19.485 29.773 -14.920 
168 55 2 0.0 19.357 29.698 -15.845 
169 56 3 0.0 35.461 15.325 -14.457 
170 56 2 0.0 35.609 14.445 -14.843 
171 56 2 0.0 35.611 13.602 -15.349 
172 57 1 0.0 45.138 38.149 -13.336 
173 57 2 0.0 44.946 38.200 -14.264 
174 57 2 0.0 44.803 38.301 -15.229 
175 58 1 0.0 7.821 17.046 -15.207 
176 58 2 0.0 7.663 16.827 -16.057 
177 58 2 0.0 7.475 16.544 -16.951 
178 59 1 0.0 34.849 22.533 -14.128 
179 59 2 0.0 34.885 22.758 -15.122 
180 59 2 0.0 34.785 22.872 -16.019 
181 60 1 0.0 6.200 47.858 -13.570 
182 60 2 0.0 6.325 48.069 -14.504 
183 60 2 0.0 6.479 48.115 -15.445 
184 61 3 0.0 39.132 2.489 -17.751 
185 61 2 0.0 39.765 2.636 -16.988 
186 61 2 0.0 40.374 2.835 -16.308 
187 62 1 0.0 29.874 21.990 -13.686 
188 62 2 0.0 30.067 22.292 -14.577 
189 62 2 0.0 30.251 22.487 -15.485 
190 63 1 0.0 23.359 15.688 -17.978 
191 63 2 0.0 23.467 15.745 -17.038 
192 63 2 0.0 23.506 15.771 -16.063 
193 64 1 0.0 7.759 30.164 -14.722 
194 64 2 0.0 8.126 30.314 -15.612 
195 64 2 0.0 8.417 30.565 -16.437 
196 65 3 0.0 8.016 13.395 -19.155 
197 65 2 0.0 8.310 13.642 -18.253 
198 65 2 0.0 8.548 14.005 -17.378 
199 66 3 0.0 26.221 46.859 -14.036 
200 66 2 0.0 26.642 47.112 -14.830 
201 66 2 0.0 27.077 47.452 -15.572 
202 67 3 0.0 28.078 7.314 -18.081 
203 67 2 0.0 28.131 7.342 -17.095 
204 67 2 0.0 28.171 7.392 -16.156 
205 68 1 0.0 19.292 34.566 -13.513 
206 68 2 0.0 19.005 34.579 -14.477 
207 68 2 0.0 18.928 34.445 -15.435 
208 69 1 0.0 36.163 34.678 -17.295 
209 69 2 0.0 36.007 34.948 -16.372 
210 69 2 0.0 35.676 35.200 -15.441 
211 70 1 0.0 41.503 47.354 -18.195 
212 70 2 0.0 41.587 47.348 -17.249 
213 70 2 0.0 41.602 47.400 -16.228 
214 71 1 0.0 25.329 14.975 -13.008 
215 71 2 0.0 25.594 15.189 -13.866 
216 71 2 0.0 25.701 15.377 -14.829 
217 72 3 0.0 12.338 3.455 -14.493 
218 72 2 0.0 12.215 3.015 -15.296 
219 72 2 0.0 12.107 2.824 -16.217 
220 73 3 0.0 27.771 40.198 -13.465 
221 73 2 0.0 27.822 40.638 -14.341 
222 73 2 0.0 27.904 40.594 -15.273 
223 74 3 0.0 1.825 25.557 -18.801 
224 74 2 0.0 1.669 25.480 -17.886 
225 74 2 0.0 1.498 25.203 -16.959 
226 75 1 0.0 15.299 4.683 -18.559 
227 75 2 0.0 14.976 5.030 -17.691 
228 75 2 0.0 14.791 5.241 -16.791 
229 76 3 0.0 46.601 16.622 -14.215 
230 76 2 0.0 46.851 16.095 -14.928 
231 76 2 0.0 46.998 15.693 -15.795 
232 77 3 0.0 18.781 13.894 -12.885 
233 77 2 0.0 18.636 13.714 -13.858 
234 77 2 0.0 18.530 13.534 -14.873 
235 78 1 0.0 28.921 2.348 -13.602 
236 78 2 0.0 29.361 2.137 -14.477 
237 78 2 0.0 29.761 1.947 -15.373 
238 79 1 0.0 23.380 36.778 -19.152 
239 79 2 0.0 23.288 36.407 -18.236 
240 79 2 0.0 22.911 36.113 -17.341 
241 80 1 0.0 34.646 19.700 -13.081 
242 80 2 0.0 34.796 19.686 -14.108 
243 80 2 0.0 34.671 19.432 -14.999 
244 81 1 0.0 29.762 37.279 -18.662 
245 81 2 0.0 29.516 37.465 -17.752 
246 81 2 0.0 29.179 37.826 -16.936 
247 82 3 0.0 24.911 19.923 -13.224 
248 82 2 0.0 25.203 19.715 -14.066 
249 82 2 0.0 25.440 19.586 -14.951 
250 83 3 0.0 25.005 10.211 -18.078 
251 83 2 0.0 25.517 9.862 -17.303 
252 83 2 0.0 25.881 9.681 -16.407 
253 84 3 0.0 7.549 8.210 -13.626 
254 84 2 0.0 7.793 8.039 -14.607 
255 84 2 0.0 7.982 7.974 -15.618 
256 85 3 0.0 35.126 25.643 -18.255 
257 85 2 0.0 35.477 25.268 -17.362 
258 85 2 0.0 35.867 25.047 -16.540 
259 86 1 0.0 16.435 17.783 -14.933 
260 86 2 0.0 16.647 17.982 -15.935 
261 86 2 0.0 16.985 18.522 -16.683 
262 87 3 0.0 9.517 28.144 -18.979 
263 87 2 0.0 9.472 28.177 -18.070 
264 87 2 0.0 9.752 28.452 -17.187 
265 88 1 0.0 42.172 7.783 -13.575 
266 88 2 0.0 42.423 8.001 -14.501 
267 88 2 0.0 42.472 8.075 -15.455 
268 89 1 0.0 6.073 19.130 -15.102 
269 89 2 0.0 5.948 19.334 -16.009 
270 89 2 0.0 5.733 19.632 -16.905 
271 90 1 0.0 2.419 30.180 -14.000 
272 90 2 0.0 2.564 30.456 -14.953 
273 90 2 0.0 2.515 30.597 -15.909 
274 91 3 0.0 16.579 21.072 -14.456 
275 91 2 0.0 16.390 21.273 -15.415 
276 91 2 0.0 16.339 21.604 -16.263 
277 92 3 0.0 42.468 11.359 -13.361 
278 92 2 0.0 42.537 11.320 -14.335 
279 92 2 0.0 42.804 11.542 -15.273 
280 93 1 0.0 10.444 40.711 -18.746 
281 93 2 0.0 10.538 40.633 -17.786 
282 93 2 0.0 10.845 40.540 -16.878 
283 94 3 0.0 39.101 9.764 -13.398 
284 94 2 0.0 38.833 9.833 -14.284 
285 94 2 0.0 38.631 9.736 -15.134 
286 95 1 0.0 47.382 1.646 -13.335 
287 95 2 0.0 47.415 1.446 -14.289 
288 95 2 0.0 47.629 1.504 -15.201 
289 96 3 0.0 10.455 1.196 -14.015 
290 96 2 0.0 10.664 1.259 -14.967 
291 96 2 0.0 10.784 1.283 -15.958 
292 97 3 0.0 47.273 16.298 -18.506 
293 97 2 0.0 47.312 16.260 -17.543 
294 97 2 0.0 47.575 15.970 -16.658 
295 98 1 0.0 3.788 37.910 -13.983 
296 98 2 0.0 4.082 37.485 -14.769 
297 98 2 0.0 4.363 37.130 -15.587 
298 99 3 0.0 46.507 37.724 -18.686 
299 99 2 0.0 46.437 38.299 -17.935 
300 99 2 0.0 46.398 38.993 -17.218 
301 100 1 0.0 43.782 14.794 -13.779 
302 100 2 0.0 43.689 14.358 -14.647 
303 100 2 0.0 43.608 14.115 -15.583 
304 101 1 0.0 38.728 0.891 -17.517 
305 101 2 0.0 38.685 1.605 -16.944 
306 101 2 0.0 38.609 2.093 -16.144 
307 102 3 0.0 0.894 27.088 -17.339 
308 102 2 0.0 1.559 27.701 -17.091 
309 102 2 0.0 2.081 28.487 -16.899 
310 103 1 0.0 48.563 8.970 -18.959 
311 103 2 0.0 48.602 8.963 -17.958 
312 103 2 0.0 48.905 8.970 -17.008 
313 104 3 0.0 16.689 6.020 -18.679 
314 104 2 0.0 16.793 5.958 -17.768 
315 104 2 0.0 16.816 6.052 -16.797 
316 105 3 0.0 40.756 3.836 -17.831 
317 105 2 0.0 41.207 4.392 -17.132 
318 105 2 0.0 41.150 4.863 -16.342 
319 106 3 0.0 44.038 27.892 -18.187 
320 106 2 0.0 44.029 27.590 -17.238 
321 106 2 0.0 44.212 27.674 -16.260 
322 107 1 0.0 35.004 9.217 -18.358 
323 107 2 0.0 35.245 9.189 -17.372 
324 107 2 0.0 35.187 9.078 -16.432 
325 108 3 0.0 41.415 47.928 -13.394 
326 108 2 0.0 41.396 48.036 -14.359 
327 108 2 0.0 41.361 47.983 -15.377 
328 109 1 0.0 20.204 1.295 -13.339 
329 109 2 0.0 20.381 1.543 -14.256 
330 109 2 0.0 20.498 1.401 -15.173 
331 110 1 0.0 6.663 6.816 -13.660 
332 110 2 0.0 6.643 7.288 -14.502 
333 110 2 0.0 6.826 7.691 -15.360 
334 111 3 0.0 43.150 19.183 -19.303 
335 111 2 0.0 42.942 18.756 -18.461 
336 111 2 0.0 42.673 18.678 -17.574 
337 112 3 0.0 24.815 7.017 -14.871 
338 112 2 0.0 24.630 6.266 -15.498 
339 112 2 0.0 24.437 5.500 -15.985 
340 113 1 0.0 39.685 12.033 -17.571 
341 113 2 0.0 40.072 11.944 -16.719 
342 113 2 0.0 40.206 11.390 -15.982 
343 114 1 0.0 49.083 12.485 -14.605 
344 114 2 0.0 48.818 12.165 -15.595 
345 114 2 0.0 48.691 11.625 -16.338 
346 115 1 0.0 45.283 33.307 -12.973 
347 115 2 0.0 45.582 33.256 -13.929 
348 115 2 0.0 45.868 33.191 -14.822 
349 116 1 0.0 27.527 36.147 -13.737 
350 116 2 0.0 27.864 36.184 -14.657 
351 116 2 0.0 28.271 36.135 -15.540 
352 117 1 0.0 7.192 0.853 -18.795 
353 117 2 0.0 7.242 0.638 -17.831 
354 117 2 0.0 7.197 0.590 -16.852 
355 118 3 0.0 25.747 32.606 -13.196 
356 118 2 0.0 25.957 32.582 -14.178 
357 118 2 0.0 26.123 32.249 -15.058 
358 119 1 0.0 20.566 30.543 -18.011 
359 119 2 0.0 20.340 30.673 -17.117 
360 119 2 0.0 19.787 30.688 -16.309 
361 120 3 0.0 15.811 15.431 -14.604 
362 120 2 0.0 15.567 15.013 -15.458 
363 120 2 0.0 15.759 14.583 -16.259 
364 121 1 0.0 12.368 18.200 -14.635 
365 121 2 0.0 12.503 18.537 -15.542 
366 121 2 0.0 12.455 18.857 -16.377 
367 122 3 0.0 14.915 1.392 -13.906 
368 122 2 0.0 15.106 1.531 -14.840 
369 122 2 0.0 15.123 1.523 -15.811 
370 123 1 0.0 32.895 5.305 -18.532 
371 123 2 0.0 32.913 5.444 -17.558 
372 123 2 0.0 32.478 5.414 -16.678 
373 124 3 0.0 15.698 3.875 -19.167 
374 124 2 0.0 15.584 3.735 -18.149 
375 124 2 0.0 15.451 3.478 -17.199 
376 125 3 0.0 17.610 3.638 -17.267 
377 125 2 0.0 17.317 4.017 -16.391 
378 125 2 0.0 16.951 4.680 -15.829 
379 126 3 0.0 10.104 16.071 -14.587 
380 126 2 0.0 10.019 15.999 -15.524 
381 126 2 0.0 9.604 16.043 -16.335 
382 127 3 0.0 46.739 1.556 -18.503 
383 127 2 0.0 46.991 1.568 -17.591 
384 127 2 0.0 47.060 1.420 -16.674 
385 128 1 0.0 31.509 1.497 -13.663 
386 128 2 0.0 31.289 1.851 -14.572 
387 128 2 0.0 30.819 2.027 -15.341 
388 129 3 0.0 30.974 39.029 -17.811 
389 129 2 0.0 30.954 38.906 -16.859 
390 129 2 0.0 30.769 38.752 -15.965 
391 130 3 0.0 7.017 12.005 -13.792 
392 130 2 0.0 6.796 12.236 -14.700 
393 130 2 0.0 6.580 12.242 -15.667 
394 131 3 0.0 48.064 27.185 -17.957 
395 131 2 0.0 48.080 27.217 -17.003 
396 131 2 0.0 48.098 27.005 -16.079 
397 132 1 0.0 28.306 8.692 -19.201 
398 132 2 0.0 28.361 9.080 -18.345 
399 132 2 0.0 28.076 9.258 -17.441 
400 133 1 0.0 43.767 2.288 -13.298 
401 133 2 0.0 43.183 2.285 -14.076 
402 133 2 0.0 42.460 2.431 -14.694 
403 134 3 0.0 25.527 24.198 -14.187 
404 134 2 0.0 25.471 23.938 -15.088 
405 134 2 0.0 25.465 23.537 -15.955 
406 135 1 0.0 45.711 9.529 -18.005 
407 135 2 0.0 45.890 9.790 -17.120 
408 135 2 0.0 46.004 9.888 -16.204 
409 136 3 0.0 44.920 8.743 -13.758 
410 136 2 0.0 45.244 8.883 -14.676 
411 136 2 0.0 45.486 9.197 -15.529 
412 137 3 0.0 37.051 25.668 -17.974 
413 137 2 0.0 37.137 26.035 -17.064 
414 137 2 0.0 37.182 26.209 -16.164 
415 138 1 0.0 45.803 28.267 -13.983 
416 138 2 0.0 45.653 28.118 -14.886 
417 138 2 0.0 45.398 28.013 -15.791 
418 139 3 0.0 35.786 33.700 -17.438 
419 139 2 0.0 35.725 33.506 -16.507 
420 139 2 0.0 35.846 33.266 -15.618 
421 140 3 0.0 13.180 10.544 -14.110 
422 140 2 0.0 12.810 10.415 -15.064 
423 140 2 0.0 12.585 10.255 -16.018 
424 141 1 0.0 41.061 12.774 -18.209 
425 141 2 0.0 41.467 12.931 -17.395 
426 141 2 0.0 42.111 12.807 -16.606 
427 142 3 0.0 46.697 7.182 -13.634 
428 142 2 0.0 46.242 6.887 -14.543 
429 142 2 0.0 46.157 6.569 -15.417 
430 143 3 0.0 34.878 39.459 -18.273 
431 143 2 0.0 34.978 39.260 -17.275 
432 143 2 0.0 34.759 39.428 -16.360 
433 144 3 0.0 37.200 9.903 -13.398 
434 144 2 0.0 37.123 10.212 -14.263 
435 144 2 0.0 37.169 10.463 -15.211 
436 145 1 0.0 30.294 11.593 -18.495 
437 145 2 0.0 30.184 11.815 -17.592 
438 145 2 0.0 30.185 11.712 -16.649 
439 146 3 0.0 44.312 4.507 -13.452 
440 146 2 0.0 43.834 4.245 -14.229 
441 146 2 0.0 43.573 4.095 -15.172 
442 147 1 0.0 13.644 31.290 -18.381 
443 147 2 0.0 13.550 31.332 -17.417 
444 147 2 0.0 13.260 31.554 -16.525 
445 148 1 0.0 15.864 41.906 -14.265 
446 148 2 0.0 15.934 41.870 -15.229 
447 148 2 0.0 15.889 41.614 -16.107 
448 149 3 0.0 9.939 18.242 -19.082 
449 149 2 0.0 9.866 18.244 -18.120 
450 149 2 0.0 9.956 18.041 -17.191 
451 150 1 0.0 37.849 14.435 -13.929 
452 150 2 0.0 37.686 14.145 -14.813 
453 150 2 0.0 37.653 13.995 -15.758 
454 151 3 0.0 1.656 9.094 -18.997 
455 151 2 0.0 1.270 8.885 -18.163 
456 151 2 0.0 1.004 8.713 -17.225 
457 152 3 0.0 42.025 42.276 -13.416 
458 152 2 0.0 42.317 41.875 -14.209 
459 152 2 0.0 42.791 41.701 -15.035 
460 153 1 0.0 36.601 11.771 -18.247 
461 153 2 0.0 36.240 11.986 -17.430 
462 153 2 0.0 35.990 12.036 -16.534 
463 154 3 0.0 16.990 34.395 -18.461 
464 154 2 0.0 17.152 34.321 -17.556 
465 154 2 0.0 17.163 34.094 -16.605 
466 155 1 0.0 46.807 20.465 -14.699 
467 155 2 0.0 46.933 20.640 -15.660 
468 155 2 0.0 47.324 20.596 -16.554 
469 156 1 0.0 43.256 3.602 -12.777 
470 156 2 0.0 42.974 3.751 -13.650 
471 156 2 0.0 42.746 3.631 -14.618 
472 157 3 0.0 44.715 21.615 -14.818 
473 157 2 0.0 44.745 21.867 -15.742 
474 157 2 0.0 44.858 21.894 -16.705 
475 158 1 0.0 0.582 27.213 -13.512 
476 158 2 0.0 0.685 27.071 -14.516 
477 158 2 0.0 0.691 26.883 -15.509 
478 159 3 0.0 10.741 47.159 -18.431 
479 159 2 0.0 10.457 47.188 -17.476 
480 159 2 0.0 10.216 47.404 -16.524 
481 160 3 0.0 11.447 36.691 -19.299 
482 160 2 0.0 11.369 37.114 -18.456 
483 160 2 0.0 11.227 37.603 -17.602 
484 161 1 0.0 21.615 8.618 -18.056 
485 161 2 0.0 21.360 8.567 -17.080 
486 161 2 0.0 21.351 8.495 -16.082 
487 162 1 0.0 5.460 6.273 -18.615 
488 162 2 0.0 5.514 6.115 -17.682 
489 162 2 0.0 5.635 5.917 -16.798 
490 163 3 0.0 19.364 45.763 -13.194 
491 163 2 0.0 19.413 45.501 -14.200 
492 163 2 0.0 19.376 45.585 -15.184 
493 164 1 0.0 48.748 21.185 -14.294 
494 164 2 0.0 48.337 20.852 -15.026 
495 164 2 0.0 48.007 20.478 -15.756 
496 165 3 0.0 1.022 32.408 -13.524 
497 165 2 0.0 1.218 32.085 -14.442 
498 165 2 0.0 1.378 31.874 -15.394 
499 166 1 0.0 16.537 16.481 -14.305 
500 166 2 0.0 16.743 16.643 -15.265 
501 166 2 0.0 17.153 16.933 -16.062 
502 167 1 0.0 11.063 45.441 -18.940 
503 167 2 0.0 10.474 45.242 -18.192 
504 167 2 0.0 10.051 45.266 -17.368 
505 168 1 0.0 26.339 32.405 -18.473 
506 168 2 0.0 26.260 32.425 -17.591 
507 168 2 0.0 26.251 32.289 -16.580 
508 169 3 0.0 48.199 13.081 -19.557 
509 169 2 0.0 48.465 12.811 -18.567 
510 169 2 0.0 48.548 12.744 -17.648 
511 170 1 0.0 36.880 44.166 -17.991 
512 170 2 0.0 36.936 43.993 -17.068 
513 170 2 0.0 37.258 43.697 -16.214 
514 171 3 0.0 28.129 11.725 -13.607 
515 171 2 0.0 28.269 11.391 -14.488 
516 171 2 0.0 28.399 11.303 -15.424 
517 172 1 0.0 42.482 26.642 -13.346 
518 172 2 0.0 42.453 26.388 -14.321 
519 172 2 0.0 42.537 26.157 -15.259 
520 173 1 0.0 32.829 40.203 -17.468 
521 173 2 0.0 33.221 40.137 -16.599 
522 173 2 0.0 33.512 40.113 -15.750 
523 174 3 0.0 8.712 35.038 -14.692 
524 174 2 0.0 8.751 35.038 -15.656 
525 174 2 0.0 8.516 35.069 -16.576 
526 175 3 0.0 42.827 42.876 -17.377 
527 175 2 0.0 43.163 42.795 -16.481 
528 175 2 0.0 43.459 42.460 -15.656 
529 176 1 0.0 21.935 44.222 -15.160 
530 176 2 0.0 21.352 44.328 -15.911 
531 176 2 0.0 20.823 44.577 -16.664 
532 177 3 0.0 37.761 1.919 -18.131 
533 177 2 0.0 38.171 2.478 -17.453 
534 177 2 0.0 38.551 2.928 -16.697 
535 178 3 0.0 1.684 44.973 -14.671 
536 178 2 0.0 2.181 45.146 -15.415 
537 178 2 0.0 2.506 45.579 -16.125 
538 179 3 0.0 16.767 44.795 -13.534 
539 179 2 0.0 17.109 44.726 -14.494 
540 179 2 0.0 17.491 44.728 -15.341 
541 180 3 0.0 15.223 42.556 -18.621 
542 180 2 0.0 15.256 42.026 -17.825 
543 180 2 0.0 15.051 41.725 -16.927 
544 181 3 0.0 32.692 0.715 -13.695 
545 181 2 0.0 32.606 0.786 -14.674 
546 181 2 0.0 32.590 0.811 -15.654 
547 182 3 0.0 45.852 40.965 -13.736 
548 182 2 0.0 46.199 40.560 -14.488 
549 182 2 0.0 46.417 40.276 -15.345 
550 183 1 0.0 30.933 39.328 -13.410 
551 183 2 0.0 31.044 39.526 -14.337 
552 183 2 0.0 31.291 39.640 -15.250 
553 184 3 0.0 16.709 5.180 -14.904 
554 184 2 0.0 17.334 5.645 -15.442 
555 184 2 0.0 17.936 6.154 -16.082 
556 185 3 0.0 18.766 14.899 -18.433 
557 185 2 0.0 18.859 15.272 -17.532 
558 185 2 0.0 18.720 15.591 -16.631 
559 186 1 0.0 43.695 33.934 -12.739 
560 186 2 0.0 43.052 34.337 -13.381 
561 186 2 0.0 42.552 34.508 -14.209 
562 187 3 0.0 6.659 38.563 -18.477 
563 187 2 0.0 6.578 38.679 -17.436 
564 187 2 0.0 6.655 38.399 -16.531 
565 188 3 0.0 18.235 30.448 -13.989 
566 188 2 0.0 18.294 30.399 -14.946 
567 188 2 0.0 18.219 30.377 -15.874 
568 189 3 0.0 12.823 46.495 -13.857 
569 189 2 0.0 12.802 46.405 -14.827 
570 189 2 0.0 12.889 46.245 -15.752 
571 190 1 0.0 45.353 15.460 -13.968 
572 190 2 0.0 44.744 15.302 -14.628 
573 190 2 0.0 44.114 15.094 -15.325 
574 191 3 0.0 11.095 26.719 -18.343 
575 191 2 0.0 11.156 26.836 -17.426 
576 191 2 0.0 11.226 26.856 -16.498 
577 192 3 0.0 40.729 39.889 -17.366 
578 192 2 0.0 40.694 40.069 -16.450 
579 192 2 0.0 40.714 40.002 -15.471 
580 193 1 0.0 11.333 36.009 -14.094 
581 193 2 0.0 11.010 35.938 -14.986 
582 193 2 0.0 10.506 35.827 -15.769 
583 194 1 0.0 44.595 28.685 -18.442 
584 194 2 0.0 44.631 28.639 -17.478 
585 194 2 0.0 44.773 28.355 -16.565 
586 195 1 0.0 40.637 44.313 -17.863 
587 195 2 0.0 40.852 44.153 -16.933 
588 195 2 0.0 40.900 43.899 -16.046 
589 196 1 0.0 33.361 2.356 -13.961 
590 196 2 0.0 33.170 2.163 -14.914 
591 196 2 0.0 33.098 2.294 -15.893 
592 197 1 0.0 9.932 39.720 -18.638 
593 197 2 0.0 9.748 39.976 -17.684 
594 197 2 0.0 9.857 40.279 -16.820 
595 198 3 0.0 9.570 5.445 -14.542 
596 198 2 0.0 9.396 5.454 -15.544 
597 198 2 0.0 9.180 5.225 -16.482 
598 199 3 0.0 42.894 15.954 -19.666 
599 199 2 0.0 42.951 16.385 -18.821 
600 199 2 0.0 43.078 16.443 -17.813 
601 200 1 0.0 36.332 21.206 -13.934 
602 200 2 0.0 36.248 20.798 -14.784 
603 200 2 0.0 36.201 20.519 -15.739 
604 201 1 0.0 48.963 7.310 -18.359 
605 201 2 0.0 49.177 6.926 -17.463 
606 201 2 0.0 0.596 6.657 -16.617 
607 202 3 0.0 13.614 41.266 -14.355 
608 202 2 0.0 13.346 41.506 -15.295 
609 202 2 0.0 13.137 41.702 -16.245 
610 203 1 0.0 13.251 24.595 -18.512 
611 203 2 0.0 12.931 24.444 -17.646 
612 203 2 0.0 12.475 24.276 -16.761 
613 204 3 0.0 24.395 15.924 -17.992 
614 204 2 0.0 24.652 16.079 -17.005 
615 204 2 0.0 24.618 16.307 -16.074 
616 205 1 0.0 44.039 10.848 -17.983 
617 205 2 0.0 44.247 10.896 -16.992 
618 205 2 0.0 44.541 10.917 -16.121 
619 206 1 0.0 27.369 48.625 -14.571 
620 206 2 0.0 27.545 48.494 -15.497 
621 206 2 0.0 27.658 48.303 -16.405 
622 207 1 0.0 20.450 32.770 -18.747 
623 207 2 0.0 20.431 33.018 -17.750 
624 207 2 0.0 20.339 33.349 -16.843 
625 208 1 0.0 35.439 12.648 -17.945 
626 208 2 0.0 35.594 12.887 -16.997 
627 208 2 0.0 35.602 12.869 -16.025 
628 209 1 0.0 47.772 6.301 -13.985 
629 209 2 0.0 47.766 6.599 -14.961 
630 209 2 0.0 47.972 6.998 -15.807 
631 210 1 0.0 20.962 11.211 -18.223 
632 210 2 0.0 21.009 11.529 -17.302 
633 210 2 0.0 20.937 11.858 -16.425 
634 211 1 0.0 13.838 48.026 -18.408 
635 211 2 0.0 13.812 48.009 -17.464 
636 211 2 0.0 13.706 47.909 -16.491 
637 212 1 0.0 4.157 6.995 -13.554 
638 212 2 0.0 4.546 6.978 -14.407 
639 212 2 0.0 4.676 7.065 -15.338 
640 213 1 0.0 8.201 6.997 -18.934 
641 213 2 0.0 8.349 6.712 -17.985 
642 213 2 0.0 8.319 6.376 -17.073 
643 214 1 0.0 47.534 38.641 -17.907 
644 214 2 0.0 47.461 38.910 -16.969 
645 214 2 0.0 47.684 38.841 -16.021 
646 215 1 0.0 46.166 16.423 -17.765 
647 215 2 0.0 45.844 16.925 -17.021 
648 215 2 0.0 45.888 17.384 -16.112 
649 216 3 0.0 44.212 33.127 -13.410 
650 216 2 0.0 43.776 33.631 -14.106 
651 216 2 0.0 43.447 34.322 -14.643 
652 217 1 0.0 6.849 31.846 -17.990 
653 217 2 0.0 6.809 32.188 -17.060 
654 217 2 0.0 6.669 32.373 -16.175 
655 218 1 0.0 30.492 28.169 -13.472 
656 218 2 0.0 30.484 28.116 -14.410 
657 218 2 0.0 30.525 28.027 -15.313 
658 219 1 0.0 38.467 39.635 -13.371 
659 219 2 0.0 38.245 39.511 -14.260 
660 219 2 0.0 38.037 39.237 -15.129 
661 220 3 0.0 29.295 12.231 -13.368 
662 220 2 0.0 29.003 12.207 -14.267 
663 220 2 0.0 28.733 12.227 -15.175 
664 221 3 0.0 6.207 34.704 -18.842 
665 221 2 0.0 6.453 34.798 -17.919 
666 221 2 0.0 6.730 35.133 -17.040 
667 222 3 0.0 3.748 0.458 -14.003 
668 222 2 0.0 3.585 0.383 -14.968 
669 222 2 0.0 3.313 48.349 -15.772 
670 223 3 0.0 4.495 17.201 -19.535 
671 223 2 0.0 4.585 16.869 -18.683 
672 223 2 0.0 4.476 16.505 -17.798 
673 224 1 0.0 8.885 6.405 -13.631 
674 224 2 0.0 8.959 6.701 -14.547 
675 224 2 0.0 8.994 6.860 -15.498 
676 225 3 0.0 21.453 9.316 -18.800 
677 225 2 0.0 21.295 9.658 -17.931 
678 225 2 0.0 21.276 9.800 -17.014 
679 226 1 0.0 0.847 20.234 -14.158 
680 226 2 0.0 0.895 20.469 -15.092 
681 226 2 0.0 0.769 20.612 -16.064 
682 227 3 0.0 28.443 38.609 -17.151 
683 227 2 0.0 28.191 38.941 -16.305 
684 227 2 0.0 28.144 39.336 -15.421 
685 228 3 0.0 36.429 32.353 -12.947 
686 228 2 0.0 36.471 32.050 -13.966 
687 228 2 0.0 36.778 31.692 -14.758 
688 229 3 0.0 30.543 10.845 -17.854 
689 229 2 0.0 30.537 10.781 -16.928 
690 229 2 0.0 30.392 10.824 -16.005 
691 230 1 0.0 18.859 4.398 -13.507 
692 230 2 0.0 18.706 4.054 -14.402 
693 230 2 0.0 18.647 3.662 -15.339 
694 231 1 0.0 45.043 1.190 -17.735 
695 231 2 0.0 45.219 0.793 -16.932 
696 231 2 0.0 45.204 0.648 -16.041 
697 232 3 0.0 6.441 45.188 -18.717 
698 232 2 0.0 6.823 45.305 -17.866 
699 232 2 0.0 7.048 45.418 -16.930 
700 233 3 0.0 26.536 2.650 -14.479 
701 233 2 0.0 26.981 2.135 -15.153 
702 233 2 0.0 27.392 1.780 -15.992 
703 234 1 0.0 39.717 16.755 -16.220 
704 234 2 0.0 38.778 16.582 -16.092 
705 234 2 0.0 37.856 16.315 -16.105 
706 235 3 0.0 42.563 11.980 -18.561 
707 235 2 0.0 42.832 12.469 -17.763 
708 235 2 0.0 43.093 12.576 -16.842 
709 236 1 0.0 10.479 6.590 -13.693 
710 236 2 0.0 10.326 6.602 -14.671 
711 236 2 0.0 9.850 6.353 -15.467 
712 237 3 0.0 48.106 11.523 -14.707 
713 237 2 0.0 48.039 11.212 -15.597 
714 237 2 0.0 48.025 10.855 -16.489 
715 238 3 0.0 5.492 38.947 -13.842 
716 238 2 0.0 5.557 38.934 -14.828 
717 238 2 0.0 5.373 38.719 -15.730 
718 239 3 0.0 45.797 30.076 -17.585 
719 239 2 0.0 46.006 30.128 -16.593 
720 239 2 0.0 46.127 30.075 -15.646 
721 240 1 0.0 29.733 1.458 -13.594 
722 240 2 0.0 29.691 1.100 -14.550 
723 240 2 0.0 29.634 0.743 -15.486 
724 241 3 0.0 41.062 20.294 -14.935 
725 241 2 0.0 41.267 19.863 -15.812 
726 241 2 0.0 41.380 19.758 -16.761 
727 242 3 0.0 1.067 21.987 -13.919 
728 242 2 0.0 1.282 21.760 -14.876 
729 242 2 0.0 1.168 21.758 -15.831 
730 243 1 0.0 22.239 38.120 -18.235 
731 243 2 0.0 22.115 37.952 -17.249 
732 243 2 0.0 22.098 37.852 -16.343 
733 244 1 0.0 12.579 43.772 -14.525 
734 244 2 0.0 12.667 43.550 -15.462 
735 244 2 0.0 12.463 43.333 -16.417 
736 245 3 0.0 6.552 35.699 -18.308 
737 245 2 0.0 6.144 35.964 -17.489 
738 245 2 0.0 5.697 36.316 -16.745 
739 246 3 0.0 7.646 41.972 -14.145 
740 246 2 0.0 8.129 42.125 -14.893 
741 246 2 0.0 8.805 42.616 -15.490 
742 247 1 0.0 18.345 40.961 -18.305 
743 247 2 0.0 18.001 40.671 -17.432 
744 247 2 0.0 17.787 40.120 -16.687 
745 248 1 0.0 12.270 8.579 -13.941 
746 248 2 0.0 12.234 8.365 -14.870 
747 248 2 0.0 12.375 8.366 -15.894 
748 249 3 0.0 13.054 9.748 -18.860 
749 249 2 0.0 12.920 10.107 -18.001 
750 249 2 0.0 12.791 10.338 -17.109 
751 250 3 0.0 18.032 4.756 -14.000 
752 250 2 0.0 18.118 4.731 -14.924 
753 250 2 0.0 18.108 4.375 -15.826 
754 251 3 0.0 4.740 46.073 -18.240 
755 251 2 0.0 4.548 45.709 -17.374 
756 251 2 0.0 4.349 45.306 -16.506 
757 252 1 0.0 2.230 18.898 -14.642 
758 252 2 0.0 2.034 19.060 -15.538 
759 252 2 0.0 2.005 19.201 -16.470 
760 253 3 0.0 5.681 8.881 -18.544 
761 253 2 0.0 5.703 9.155 -17.646 
762 253 2 0.0 5.759 9.440 -16.705 
763 254 1 0.0 37.361 9.767 -17.828 
764 254 2 0.0 37.178 9.551 -16.910 
765 254 2 0.0 36.930 9.632 -16.019 
766 255 3 0.0 20.260 15.890 -13.323 
767 255 2 0.0 20.173 15.805 -14.274 
768 255 2 0.0 20.353 15.667 -15.221 
769 256 1 0.0 2.948 1.969 -13.852 
770 256 2 0.0 2.504 1.984 -14.658 
771 256 2 0.0 1.878 1.981 -15.363 
772 257 1 0.0 18.908 9.128 -18.371 
773 257 2 0.0 18.916 9.673 -17.571 
774 257 2 0.0 18.943 9.907 -16.670 
775 258 1 0.0 9.761 1.749 -14.581 
776 258 2 0.0 9.786 1.650 -15.513 
777 258 2 0.0 9.864 1.528 -16.505 
778 259 1 0.0 21.516 41.427 -17.826 
779 259 2 0.0 21.454 41.858 -16.998 
780 259 2 0.0 21.244 42.408 -16.275 
781 260 3 0.0 15.633 17.302 -15.457 
782 260 2 0.0 15.985 16.708 -16.128 
783 260 2 0.0 16.567 16.267 -16.749 
784 261 1 0.0 19.655 8.441 -18.255 
785 261 2 0.0 19.330 8.417 -17.354 
786 261 2 0.0 19.272 8.539 -16.437 
787 262 3 0.0 44.961 46.117 -12.725 
788 262 2 0.0 45.258 45.918 -13.642 
789 262 2 0.0 45.207 45.919 -14.642 
790 263 1 0.0 38.011 42.562 -18.153 
791 263 2 0.0 37.916 42.657 -17.206 
792 263 2 0.0 37.846 42.871 -16.308 
793 264 3 0.0 11.879 11.512 -19.194 
794 264 2 0.0 12.155 11.831 -18.264 
795 264 2 0.0 12.196 12.116 -17.345 
796 265 3 0.0 30.122 23.308 -18.021 
797 265 2 0.0 30.347 23.747 -17.146 
798 265 2 0.0 30.758 23.781 -16.255 
799 266 3 0.0 14.803 8.810 -13.874 
800 266 2 0.0 15.139 8.766 -14.764 
801 266 2 0.0 15.581 8.854 -15.629 
802 267 1 0.0 11.675 44.469 -18.782 
803 267 2 0.0 11.598 44.581 -17.739 
804 267 2 0.0 11.480 44.747 -16.823 
805 268 1 0.0 14.724 7.764 -14.074 
806 268 2 0.0 14.694 7.753 -15.013 
807 268 2 0.0 14.644 7.439 -15.875 
808 269 3 0.0 16.629 0.760 -17.984 
809 269 2 0.0 16.373 0.822 -17.047 
810 269 2 0.0 16.314 0.882 -16.056 
811 270 1 0.0 25.501 42.225 -17.791 
812 270 2 0.0 25.559 42.411 -16.875 
813 270 2 0.0 25.811 42.404 -15.981 
814 271 1 0.0 28.659 35.790 -18.450 
815 271 2 0.0 28.549 35.725 -17.480 
816 271 2 0.0 28.365 36.009 -16.567 
817 272 1 0.0 23.007 19.073 -13.971 
818 272 2 0.0 23.000 18.891 -14.945 
819 272 2 0.0 23.244 18.626 -15.903 
820 273 1 0.0 39.789 25.565 -12.974 
821 273 2 0.0 39.620 25.905 -13.887 
822 273 2 0.0 39.533 25.987 -14.803 
823 274 3 0.0 20.665 36.609 -13.609 
824 274 2 0.0 20.811 36.377 -14.481 
825 274 2 0.0 21.042 36.300 -15.420 